 vasp.5.4.4.18Apr17
 NIONS =       2
 NELM   =     60
 NSW    =      0
 IBRION =     -1
 --------------------------------------- Iteration    1(   1)  ---------------------------------------
 VERY BAD NEWS! internal error in subroutine IBZKPT
