 vasp.5.4.4.18Apr17-6-g9f103f2a35
 NIONS =      2
 NELM   =     60
 NSW    =     10
 IBRION =      2
 --------------------------------------- Iteration    1(   1)  ---------------------------------------
 --------------------------------------- Iteration    1(   2)  ---------------------------------------
 aborting loop because EDIFF is reached
  free  energy   TOTEN  =       -10.00000000 eV
  energy  without entropy=      -9.99500000  energy(sigma->0) =      -9.99750000
 POSITION                                       TOTAL-FORCE (eV/Angst)
 -----------------------------------------------------------------------------------
  0.000000  0.000000  0.000000   0.100000  0.000000  0.000000
  1.000000  1.000000  1.000000  -0.100000  0.000000  0.000000
 -----------------------------------------------------------------------------------
 magnetization (x)
 # of ion       s       p       d       tot
 --------------------------------------------------
     1        0.000   0.100   0.900   1.000
     2        0.000   0.100   0.700   0.800
 --------------------------------------------------
 tot          0.000   0.200   1.600   1.800
 --------------------------------------- Iteration    2(   1)  ---------------------------------------
 aborting loop because EDIFF is reached
  free  energy   TOTEN  =       -10.25000000 eV
  energy  without entropy=     -10.24000000  energy(sigma->0) =     -10.24500000
 POSITION                                       TOTAL-FORCE (eV/Angst)
 -----------------------------------------------------------------------------------
  0.010000  0.000000  0.000000   0.020000  0.030000  0.000000
  0.990000  1.000000  1.000000  -0.020000 -0.030000  0.000000
 -----------------------------------------------------------------------------------
 magnetization (x)
 # of ion       s       p       d       tot
 --------------------------------------------------
     1        0.000   0.100   0.800   0.900
     2        0.000   0.100   0.700   0.800
 --------------------------------------------------
 tot          0.000   0.200   1.500   1.700
 reached required accuracy - stopping structural energy minimisation
 General timing and accounting informations for this job:
