 vasp.5.4.4.18Apr17
 NIONS =       1
 NELM   =      3
 NSW    =      0
 IBRION =     -1
 --------------------------------------- Iteration    1(   1)  ---------------------------------------
 --------------------------------------- Iteration    1(   2)  ---------------------------------------
 --------------------------------------- Iteration    1(   3)  ---------------------------------------
  free  energy   TOTEN  =        -1.20000000 eV
  energy  without entropy=      -1.19000000  energy(sigma->0) =      -1.19500000
 POSITION                                       TOTAL-FORCE (eV/Angst)
 -----------------------------------------------------------------------------------
  0.000000  0.000000  0.000000   0.500000  0.000000  0.000000
 -----------------------------------------------------------------------------------
 General timing and accounting informations for this job:
