 vasp.5.4.4.18Apr17
 NIONS =       2
 NELM   =     60
 NSW    =     20
 IBRION =      2
 --------------------------------------- Iteration    1(   1)  ---------------------------------------
 aborting loop because EDIFF is reached
  free  energy   TOTEN  =        -3.00000000 eV
  energy  without entropy=      -2.99000000  energy(sigma->0) =      -2.99500000
 POSITION                                       TOTAL-FORCE (eV/Angst)
 -----------------------------------------------------------------------------------
  0.000000  0.000000  0.000000   0.100000  0.000000  0.000000
  1.000000  1.000000  1.000000  -0.100000  0.000000  0.000000
 -----------------------------------------------------------------------------------
 --------------------------------------- Iteration    2(   1)  ---------------------------------------
  free  energy   TOTEN  =        -3.10000000 eV
  energy  without entropy=      -3.09000000  energy(sigma->0) =      -3.09500000
 POSITION                                       TOTAL-FORCE (eV/Angst)
 -----------------------------------------------------------------------------------
  0.010000  0.000000  0.000000   0.050000  0.000000  0.000000
